data_165286-ICSD
_database_code_ICSD 165286
_audit_creation_date 2010-02-01
_chemical_name_systematic 'Trideuteriooxonium hexafluoroantimonate(V)'
_chemical_formula_structural '(D3 O) (Sb F6)'
_chemical_formula_sum 'D3 F6 O1 Sb1'
_chemical_name_structure_type H3OSbF6
_exptl_crystal_density_diffrn 3.29
_cell_measurement_temperature 293.
_publ_section_title

;
Structure and vibrational spectra of oxonium hexafluoroarsenates(V) and
-antimonates(V)
;
loop_
_citation_id
_citation_journal_full
_citation_year
_citation_journal_volume
_citation_page_first
_citation_page_last
_citation_journal_id_ASTM
primary 'Inorganic Chemistry' 1984 23 3756 3766 INOCAJ
loop_
_publ_author_name
'Christe, K.O.'
'Charpin, P.'
'Soulie, E.'
'Bougon, R.'
'Fawcett, J.'
'Russell, D.R.'
_cell_length_a 10.130(8)
_cell_length_b 10.130(8)
_cell_length_c 10.130(8)
_cell_angle_alpha 90.
_cell_angle_beta 90.
_cell_angle_gamma 90.
_cell_volume 1039.51
_cell_formula_units_Z 8
_symmetry_space_group_name_H-M 'I a -3'
_symmetry_Int_Tables_number 206
_refine_ls_R_factor_all 0.135
loop_
_symmetry_equiv_pos_site_id
_symmetry_equiv_pos_as_xyz
1 '-z, x, y+1/2'
2 'z, x+1/2, -y'
3 'z+1/2, -x, y'
4 '-z, -x, -y'
5 'y+1/2, -z, x'
6 '-y, z, x+1/2'
7 'y, z+1/2, -x'
8 '-y, -z, -x'
9 'x, y+1/2, -z'
10 'x+1/2, -y, z'
11 '-x, y, z+1/2'
12 '-x, -y, -z'
13 'z, -x, -y+1/2'
14 '-z, -x+1/2, y'
15 '-z+1/2, x, -y'
16 'z, x, y'
17 '-y+1/2, z, -x'
18 'y, -z, -x+1/2'
19 '-y, -z+1/2, x'
20 'y, z, x'
21 '-x, -y+1/2, z'
22 '-x+1/2, y, -z'
23 'x, -y, -z+1/2'
24 'x, y, z'
25 '-z+1/2, x+1/2, y'
26 'z+1/2, x, -y+1/2'
27 'z, -x+1/2, y+1/2'
28 '-z+1/2, -x+1/2, -y+1/2'
29 'y, -z+1/2, x+1/2'
30 '-y+1/2, z+1/2, x'
31 'y+1/2, z, -x+1/2'
32 '-y+1/2, -z+1/2, -x+1/2'
33 'x+1/2, y, -z+1/2'
34 'x, -y+1/2, z+1/2'
35 '-x+1/2, y+1/2, z'
36 '-x+1/2, -y+1/2, -z+1/2'
37 'z+1/2, -x+1/2, -y'
38 '-z+1/2, -x, y+1/2'
39 '-z, x+1/2, -y+1/2'
40 'z+1/2, x+1/2, y+1/2'
41 '-y, z+1/2, -x+1/2'
42 'y+1/2, -z+1/2, -x'
43 '-y+1/2, -z, x+1/2'
44 'y+1/2, z+1/2, x+1/2'
45 '-x+1/2, -y, z+1/2'
46 '-x, y+1/2, -z+1/2'
47 'x+1/2, -y+1/2, -z'
48 'x+1/2, y+1/2, z+1/2'
loop_
_atom_type_symbol
_atom_type_oxidation_number
Sb5+ 5
O2- -2
F1- -1
D1+ 1
loop_
_atom_site_label
_atom_site_type_symbol
_atom_site_symmetry_multiplicity
_atom_site_Wyckoff_symbol
_atom_site_fract_x
_atom_site_fract_y
_atom_site_fract_z
_atom_site_B_iso_or_equiv
_atom_site_occupancy
_atom_site_attached_hydrogens
Sb1 Sb5+ 8 a 0.5 0.5 0.5 0.94(25) 1. 0
O1 O2- 8 b 0.25 0.25 0.25 4.87(41) 1. 0
F1 F1- 48 e 0.441(6) 0.604(6) 0.641(7) 2.88(13) 1. 0
D1 D1+ 48 e 0.300(1) 0.317(1) 0.204(1) 2.98(27) 0.5 0
#End of TTdata_165286-ICSD